# vtk DataFile Version 3.0
Really cool data
ASCII
DATASET UNSTRUCTURED_GRID
POINTS 29536 float
3691.637900 3301.998000 -131.830900
3691.637900 3301.998000 -609.599980
3988.819100 3227.321000 -609.599980
3988.819100 3227.321000 -177.588390
5680.458000 3227.321000 -609.599980
5680.458000 3227.321000 -190.209790
5977.638200 3301.998000 -609.599980
5977.638200 3301.998000 -166.720900
5680.458000 3376.673100 -609.599980
5680.458000 3376.673100 -188.173400
3988.819100 3376.673100 -609.599980
3988.819100 3376.673100 -159.243800
5680.458000 3301.998000 -609.599980
3988.819100 3301.998000 -609.599980
7620.000000 6096.000000 0.000000
7620.000000 6604.000000 0.000000
6604.000000 6604.000000 0.000000
6096.000000 6096.000000 0.000000
7620.000000 0.000000 -0.000000
0.000000 0.000000 0.000000
3691.637900 -3301.998000 -131.830900
3691.637900 -3301.998000 -609.599980
3988.819100 -3227.321000 -177.588390
3988.819100 -3227.321000 -609.599980
5680.458000 -3376.673100 -609.599980
5680.458000 -3376.673100 -188.173400
3988.819100 -3376.673100 -159.243800
3988.819100 -3376.673100 -609.599980
5680.458000 -3301.998000 -609.599980
5977.638200 -3301.998000 -609.599980
5680.458000 -3227.321000 -609.599980
3988.819100 -3301.998000 -609.599980
7620.000000 -6096.000000 0.000000
7620.000000 -6604.000000 0.000000
6096.000000 -6096.000000 0.000000
6604.000000 -6604.000000 0.000000
5680.458000 -3227.321000 -190.209790
5977.638200 -3301.998000 -166.720900
5239.511200 -3606.228000 -1203.391000
5778.498000 -3606.228000 -1203.391000
5239.511200 -3606.228000 -594.929080
5778.498000 -3606.228000 -594.929080
5239.511200 -2997.766100 -1203.391000
5778.498000 -2997.766100 -1203.391000
5239.511200 -2997.766100 -594.929080
5778.498000 -2997.766100 -594.929080
4931.667000 -3481.603000 -1078.765000
5778.498000 -3445.353000 -1042.516000
4931.667000 -3481.603000 -719.554630
5778.498000 -3445.353000 -755.804200
4931.667000 -3122.392100 -1078.765000
5778.498000 -3158.642100 -1042.516000
4931.667000 -3122.392100 -719.554630
5778.498000 -3158.642100 -755.804200
5862.828100 -3301.998000 -721.359920
5862.828100 -3301.998000 -1076.960000
2844.798100 -3301.998000 -899.159970
2844.798100 3301.998000 -899.159970
5862.828100 3301.998000 -721.359920
5862.828100 3301.998000 -1076.960000
5778.498000 3158.642100 -755.804200
4931.667000 3122.392100 -719.554630
5778.498000 3158.642100 -1042.516000
4931.667000 3122.392100 -1078.765000
5778.498000 3445.353000 -755.804200
4931.667000 3481.603000 -719.554630
5778.498000 3445.353000 -1042.516000
4931.667000 3481.603000 -1078.765000
5239.511200 2997.766100 -594.929080
5778.498000 2997.766100 -594.929080
5239.511200 2997.766100 -1203.391000
5778.498000 2997.766100 -1203.391000
5239.511200 3606.228000 -594.929080
5778.498000 3606.228000 -594.929080
5239.511200 3606.228000 -1203.391000
5778.498000 3606.228000 -1203.391000
-10000.000000 -20000.000000 10000.000000
30000.000000 -20000.000000 10000.000000
-10000.000000 20000.000000 10000.000000
-10000.000000 -20000.000000 -10000.000000
30000.000000 20000.000000 10000.000000
30000.000000 -20000.000000 -10000.000000
-10000.000000 20000.000000 -10000.000000
30000.000000 20000.000000 -10000.000000
3691.637900 3301.998000 -222.324550
3691.637900 3301.998000 -319.435550
3691.637900 3301.998000 -419.221560
3691.637900 3301.998000 -517.605410
3762.803500 3271.121100 -609.599980
3836.929400 3248.234600 -609.599980
3913.081500 3233.536900 -609.599980
3988.819100 3227.321000 -530.339110
3988.819100 3227.321000 -444.453090
3988.819100 3227.321000 -355.252200
3988.819100 3227.321000 -266.010590
3920.360400 3232.642600 -170.334700
3833.376000 3249.273700 -158.884640
3750.949000 3275.689700 -144.778290
5680.458000 3227.321000 -533.230960
5680.458000 3227.321000 -449.702730
5680.458000 3227.321000 -362.562100
5680.458000 3227.321000 -275.404940
4067.218800 3227.321000 -184.525730
4166.051800 3227.321000 -192.187910
4265.880400 3227.322000 -198.840910
4366.698200 3227.322000 -204.557540
4468.359400 3227.322000 -209.373630
4570.176300 3227.322000 -213.283260
4672.051300 3227.322000 -216.292860
4773.976600 3227.322000 -218.385010
4875.939000 3227.322000 -219.486070
4977.887700 3227.322000 -219.372700
5079.798300 3227.322000 -218.060700
5181.658700 3227.322000 -215.625690
5283.422900 3227.322000 -212.149660
5384.343800 3227.322000 -207.753740
5484.130900 3227.321300 -202.560610
5582.795900 3227.321000 -196.680070
4069.658700 3227.321000 -609.599980
4154.218800 3227.321500 -609.599980
4243.209000 3227.322000 -609.599980
4336.860400 3227.322000 -609.599980
4435.274900 3227.322000 -609.599980
4535.144500 3227.322000 -609.599980
4634.992200 3227.322000 -609.599980
4734.817400 3227.322000 -609.599980
4834.621100 3227.322000 -609.599980
4934.425800 3227.322000 -609.599980
5034.253400 3227.322000 -609.599980
5134.104000 3227.322000 -609.599980
5233.978000 3227.322000 -609.599980
5332.398400 3227.322000 -609.599980
5426.027300 3227.321500 -609.599980
5515.011200 3227.321000 -609.599980
5599.581100 3227.321000 -609.599980
5977.638200 3301.998000 -526.312010
5977.638200 3301.998000 -437.403320
5977.638200 3301.998000 -346.678070
5977.638200 3301.998000 -255.966200
5786.828600 3238.487800 -182.402510
5891.898400 3265.978500 -174.005680
5755.493700 3233.445300 -609.599980
5832.081100 3248.171400 -609.599980
5906.608400 3271.175000 -609.599980
5680.458000 3376.673100 -531.643490
5680.458000 3376.673100 -448.377260
5680.458000 3376.673100 -361.830810
5680.458000 3376.673100 -275.319580
5892.252900 3337.892800 -173.358660
5780.211400 3366.680700 -181.477580
5906.983900 3332.685100 -609.599980
5832.734400 3355.663300 -609.599980
5756.413600 3370.428000 -609.599980
4069.555200 3376.673100 -609.599980
4153.886700 3376.673100 -609.599980
4242.693400 3376.673100 -609.599980
4336.211900 3376.673100 -609.599980
4434.557600 3376.673100 -609.599980
4534.436500 3376.673100 -609.599980
4634.340300 3376.673100 -609.599980
4734.268100 3376.673100 -609.599980
4834.220700 3376.673100 -609.599980
4934.183600 3376.673100 -609.599980
5034.143600 3376.673100 -609.599980
5134.099100 3376.673100 -609.599980
5234.051800 3376.673100 -609.599980
5332.525400 3376.673100 -609.599980
5426.203100 3376.673100 -609.599980
5515.227500 3376.673100 -609.599980
5599.835900 3376.673100 -609.599980
3988.819100 3376.673100 -527.505920
3988.819100 3376.673100 -437.264680
3988.819100 3376.673100 -343.938140
3988.819100 3376.673100 -250.611660
4061.850600 3376.673100 -166.746510
4155.235400 3376.673100 -175.453490
4249.805200 3376.673100 -183.171400
4345.562000 3376.673100 -189.891770
4442.440900 3376.673100 -195.728810
4539.615700 3376.673100 -200.701310
4636.811000 3376.673100 -204.770430
4734.018100 3376.673100 -207.942210
4831.227100 3376.673100 -210.253570
4928.452600 3376.673100 -211.659470
5025.710000 3376.673100 -212.029170
5122.988800 3376.673100 -211.324340
5220.276400 3376.673100 -209.538180
5317.333500 3376.673100 -206.706860
5413.329600 3376.673100 -202.936220
5508.180200 3376.673100 -198.349210
5601.887700 3376.673100 -193.078540
3921.137000 3371.474400 -152.324600
3833.130400 3354.713400 -143.692230
3752.074200 3328.769000 -136.469180
3913.439200 3370.506800 -609.599980
3836.947500 3355.764900 -609.599980
3762.503900 3332.763200 -609.599980
5753.435100 3301.998000 -609.599980
5828.396500 3301.998000 -609.599980
5903.344200 3301.998000 -609.599980
4069.808300 3301.998000 -609.599980
4154.359400 3301.998000 -609.599980
4243.322800 3301.998000 -609.599980
4336.928200 3301.998000 -609.599980
4435.277300 3301.998000 -609.599980
4535.111300 3301.998000 -609.599980
4634.975600 3301.998000 -609.599980
4734.870600 3301.998000 -609.599980
4834.795900 3301.998000 -609.599980
4934.725600 3301.998000 -609.599980
5034.632800 3301.998000 -609.599980
5134.518100 3301.998000 -609.599980
5234.380400 3301.998000 -609.599980
5332.744100 3301.998000 -609.599980
5426.330600 3301.998000 -609.599980
5515.278800 3301.998000 -609.599980
5599.829100 3301.998000 -609.599980
3765.810800 3301.998000 -609.599980
3840.679900 3301.998000 -609.599980
3915.565900 3301.998000 -609.599980
7620.000000 6189.728500 0.000000
7620.000000 6297.023400 0.000000
7620.000000 6404.398400 0.000000
7620.000000 6511.779800 0.000000
6648.211400 6604.000000 0.000000
6683.521500 6604.000000 0.000000
6723.844700 6604.000000 0.000000
6769.893100 6604.000000 0.000000
6822.491700 6604.000000 0.000000
6882.592800 6604.000000 0.000000
6951.301800 6604.000000 0.000000
7029.908200 6604.000000 0.000000
7119.948700 6604.000000 0.000000
7221.107400 6604.000000 0.000000
7324.494100 6604.000000 0.000000
7427.939000 6604.000000 0.000000
7531.314500 6604.000000 0.000000
6113.793900 6113.793900 0.000000
6131.717800 6131.717800 0.000000
6149.752900 6149.752900 0.000000
6167.900400 6167.900400 0.000000
6186.160600 6186.160600 0.000000
6204.534700 6204.534700 0.000000
6223.020500 6223.020500 0.000000
6241.564500 6241.564500 0.000000
6260.126000 6260.126000 0.000000
6278.697800 6278.697800 0.000000
6297.279800 6297.279800 0.000000
6315.873000 6315.873000 0.000000
6334.476600 6334.476600 0.000000
6353.089800 6353.089800 0.000000
6371.707500 6371.707500 0.000000
6390.325200 6390.325200 0.000000
6408.942900 6408.942900 0.000000
6427.561000 6427.561000 0.000000
6446.178700 6446.178700 0.000000
6464.796400 6464.796400 0.000000
6483.414600 6483.414600 0.000000
6502.032200 6502.032200 0.000000
6520.649900 6520.649900 0.000000
6539.268100 6539.268100 0.000000
6557.885700 6557.885700 0.000000
6576.503400 6576.503400 0.000000
6113.816900 6096.000000 18.376421
6139.178700 6096.000000 27.238842
6167.729500 6096.000000 34.419529
6200.797400 6096.000000 40.924091
6238.769000 6096.000000 47.327820
6282.301800 6096.000000 53.293941
6332.468300 6096.000000 58.875546
[...]
POINT_DATA 29536
VECTORS vectors float
-0.305500 0.165692 -0.937665
-0.369888 -0.000040 -0.929076
-0.022692 -0.553914 -0.832265
-0.100712 -0.485098 -0.868641
0.018193 -0.446547 -0.894575
0.089752 -0.704875 -0.703631
0.369970 -0.000060 -0.929044
0.336221 0.006094 -0.941763
0.022733 0.553911 -0.832266
0.083450 0.714044 -0.695109
-0.022618 0.553919 -0.832263
-0.107189 0.626742 -0.771819
0.000000 0.000000 -1.000000
0.000000 0.000000 -1.000000
1.000000 0.000000 -0.000096
0.022275 0.041600 -0.998886
-0.361901 0.932208 -0.004100
-0.726186 0.680701 -0.096435
1.000000 0.000000 -0.000001
-0.999439 -0.020336 -0.026597
-0.492755 -0.153253 -0.856566
-0.369854 -0.000123 -0.929090
-0.110730 0.540520 -0.834012
-0.022736 0.553911 -0.832266
0.022753 -0.553909 -0.832266
0.082456 -0.714042 -0.695230
-0.121362 -0.595909 -0.793829
-0.023004 -0.553892 -0.832271
0.000000 0.000000 -1.000000
0.369459 0.000205 -0.929247
0.022683 0.553914 -0.832265
0.000000 0.000000 -1.000000
1.000000 0.000000 -0.000152
0.039404 -0.028112 -0.998828
-0.751285 -0.659961 -0.004676
-0.115451 -0.260215 0.958624
0.088555 0.704449 -0.704209
0.300580 -0.006455 -0.953735
-0.295692 -0.675096 -0.675878
0.089840 -0.704258 -0.704237
-0.295317 -0.675715 0.675423
0.090049 -0.704230 0.704238
-0.296902 0.674020 -0.676421
0.090122 0.704228 -0.704231
-0.311549 0.671704 0.672124
0.089842 0.704299 0.704196
-0.211558 -0.689016 -0.693181
0.286400 -0.673244 -0.681702
-0.214725 -0.690851 0.690375
0.289956 -0.670019 0.683374
-0.216710 0.690945 -0.689661
0.294190 0.684287 -0.667235
-0.215754 0.688426 0.692474
0.284994 0.678243 0.677322
0.650510 -0.000601 0.759497
0.745115 0.000142 -0.666936
-0.999973 -0.000073 -0.007286
-1.000000 0.000028 0.000297
0.745584 0.002976 0.666405
0.745733 -0.002974 -0.666238
0.289046 -0.672677 0.681144
-0.211326 -0.692045 0.690228
0.287607 -0.682777 -0.671638
-0.244167 -0.674914 -0.696328
0.288778 0.684989 0.668877
-0.242446 0.671666 0.700060
0.279495 0.694517 -0.662969
-0.211918 0.692221 -0.689870
-0.315695 -0.671165 0.670726
0.090359 -0.704232 0.704196
-0.314682 -0.671028 -0.671340
0.090376 -0.704214 -0.704212
-0.315424 0.670711 0.671308
0.090375 0.704212 0.704214
-0.316580 0.670975 -0.670500
0.090372 0.704154 -0.704273
0.000000 0.000000 0.000000
0.000000 0.000000 0.000000
0.000000 0.000000 0.000000
0.000000 0.000000 0.000000
0.000000 0.000000 0.000000
0.000000 0.000000 0.000000
0.000000 0.000000 0.000000
0.000000 0.000000 0.000000
-0.999918 0.000617 -0.012813
-0.999905 -0.000217 -0.013777
-0.999933 0.002403 0.011291
-0.999919 0.000081 0.012729
-0.253736 -0.660112 -0.707014
-0.202500 -0.806946 -0.554827
-0.087188 -0.701929 -0.706891
-0.040015 -0.999197 0.002242
-0.056181 -0.998419 -0.002000
-0.046198 -0.998932 0.001242
-0.044823 -0.998993 -0.002002
-0.163233 -0.652403 -0.740085
-0.267745 -0.623873 -0.734231
-0.368092 -0.579464 -0.727138
0.046903 -0.998895 0.002911
0.047483 -0.998871 -0.001583
0.046448 -0.998920 0.001029
0.041150 -0.999144 -0.004238
-0.059366 -0.668948 -0.740935
-0.051543 -0.672009 -0.738747
-0.043859 -0.674691 -0.736796
-0.043325 -0.505300 -0.861856
-0.025561 -0.783246 -0.621186
-0.023465 -0.681518 -0.731425
-0.016853 -0.684007 -0.729281
-0.009797 -0.686302 -0.727251
-0.001831 -0.688629 -0.725112
0.006644 -0.690875 -0.722944
0.014883 -0.693222 -0.720571
0.022281 -0.695605 -0.718078
0.024531 -0.794256 -0.607088
0.034982 -0.699270 -0.714001
0.034322 -0.796033 -0.604279
0.045360 -0.701691 -0.711036
0.000003 -0.707109 -0.707105
0.000003 -0.707109 -0.707104
0.000001 -0.707107 -0.707106
0.000000 -0.707107 -0.707107
0.000000 -0.600000 -0.800000
0.000000 -0.707107 -0.707107
0.000000 -0.832050 -0.554700
0.000000 -0.707107 -0.707107
0.000000 -0.707107 -0.707107
0.000000 -0.707107 -0.707107
0.000000 -0.707107 -0.707107
0.000000 -0.707107 -0.707107
0.000000 -0.707107 -0.707107
-0.000001 -0.707107 -0.707106
-0.000003 -0.707109 -0.707104
-0.000002 -0.707110 -0.707103
-0.000002 -0.707109 -0.707105
0.999884 -0.000055 0.015244
0.999983 0.002652 -0.005229
1.000000 0.000078 -0.000551
0.999574 0.000201 -0.029195
0.193463 -0.782437 -0.591916
0.289954 -0.658778 -0.694218
0.102556 -0.826196 -0.553970
0.171566 -0.685388 -0.707679
0.253449 -0.660407 -0.706842
0.047466 0.998868 0.003115
0.066542 0.997771 -0.004970
0.047150 0.998887 0.001191
0.041346 0.999134 -0.004687
0.284837 0.665934 -0.689492
0.186227 0.787992 -0.586846
0.253706 0.660346 -0.706807
0.202239 0.806555 -0.555490
0.088023 0.701970 -0.706746
0.000000 0.707107 -0.707107
0.000000 0.707107 -0.707107
0.000000 0.707107 -0.707107
0.000000 0.707107 -0.707107
0.000000 0.707107 -0.707107
0.000000 0.707107 -0.707107
0.000000 0.707107 -0.707107
0.000000 0.707107 -0.707107
0.000000 0.707107 -0.707107
0.000000 0.707107 -0.707107
0.000000 0.707107 -0.707107
0.000000 0.707107 -0.707107
0.000000 0.707107 -0.707107
0.000000 0.707107 -0.707107
0.000000 0.707107 -0.707107
0.000000 0.707107 -0.707107
0.000000 0.600000 -0.800000
-0.047302 0.998876 0.002985
-0.066698 0.997772 -0.001670
-0.048612 0.998816 0.002087
-0.047986 0.998842 -0.003348
-0.066377 0.749599 -0.658556
-0.059904 0.746691 -0.662468
-0.052772 0.743673 -0.666458
-0.045340 0.740615 -0.670398
-0.039119 0.738214 -0.673431
-0.033157 0.736049 -0.676115
-0.026724 0.733504 -0.679160
-0.020511 0.731237 -0.681815
-0.014311 0.729159 -0.684194
-0.007787 0.726915 -0.686683
-0.000405 0.724336 -0.689447
0.007444 0.721829 -0.692031
0.015372 0.719701 -0.694114
0.022978 0.718050 -0.695613
0.029624 0.716563 -0.696894
0.035591 0.714988 -0.698230
0.040774 0.713518 -0.699449
-0.161556 0.746533 -0.645437
-0.250195 0.731447 -0.634340
-0.312062 0.632641 -0.708790
-0.087733 0.701952 -0.706800
-0.202129 0.806823 -0.555140
-0.253765 0.660127 -0.706991
0.000000 0.000000 -1.000000
0.000000 0.000000 -1.000000
0.000000 0.000000 -1.000000
0.000000 0.000000 -1.000000
0.000000 0.000000 -1.000000
0.000000 0.000000 -1.000000
0.000000 0.000000 -1.000000
0.000000 0.000000 -1.000000
0.000000 0.000000 -1.000000
0.000000 0.000000 -1.000000
0.000000 0.000000 -1.000000
0.000000 0.000000 -1.000000
0.000000 0.000000 -1.000000
0.000000 0.000000 -1.000000
0.000000 0.000000 -1.000000
0.000000 0.000000 -1.000000
0.000000 0.000000 -1.000000
0.000000 0.000000 -1.000000
0.000000 0.000000 -1.000000
0.000000 0.000000 -1.000000
0.000000 0.000000 -1.000000
0.000000 0.000000 -1.000000
0.000000 0.000000 -1.000000
0.997238 0.074272 -0.000395
0.353077 0.017690 0.935427
0.367935 0.060653 -0.927871
0.182239 0.075933 0.980318
-0.045772 0.483382 -0.874212
-0.011936 0.431357 0.902102
-0.041048 0.999156 -0.001232
-0.040504 0.999178 -0.001756
-0.021310 0.999773 -0.000488
-0.012711 0.999919 -0.000029
-0.002007 0.999998 0.000016
0.014308 0.999898 -0.000013
0.041039 0.999157 -0.000461
0.072946 0.997335 -0.001453
0.089160 0.996017 -0.000905
0.134210 0.990953 -0.000615
0.025138 0.148627 0.988574
-0.670772 0.730857 0.126151
-0.664889 0.742544 -0.080941
-0.708964 0.705040 0.016992
-0.699064 0.715017 0.007770
-0.699641 0.714490 0.002722
-0.698741 0.715363 -0.004193
-0.690479 0.723256 -0.011768
-0.694983 0.719020 -0.003145
-0.696941 0.717054 0.010357
-0.682580 0.689575 -0.242015
-0.689642 0.724149 0.001440
-0.700922 0.713227 0.004044
-0.653652 0.691493 -0.307533
-0.691781 0.721922 -0.016337
-0.692341 0.721513 -0.009098
-0.700210 0.713932 -0.002639
-0.656953 0.753869 0.009730
-0.698511 0.715381 0.017673
-0.680615 0.732576 0.009802
-0.695146 0.718868 0.001198
-0.669947 0.742409 0.000030
-0.681570 0.731753 0.000029
-0.662643 0.748935 -0.001029
-0.661822 0.749660 -0.001349
-0.641464 0.767153 -0.000094
-0.612900 0.790160 0.000171
-0.453113 0.415964 0.788456
-0.276001 0.303567 0.911960
-0.215823 0.250010 0.943883
-0.179497 0.221092 0.958592
-0.148215 0.197030 0.969129
-0.118335 0.167472 0.978749
-0.102795 0.166750 0.980626
-0.082039 0.152745 0.984855
-0.060289 0.134919 0.989021
-0.039900 0.122567 0.991658
-0.016565 0.108938 0.993910
0.011965 0.091993 0.995688
0.040062 0.075814 0.996317
0.060254 0.067122 0.995924
0.082555 0.039300 0.995811
0.089381 0.047724 0.994853
0.098715 0.026428 0.994765
0.099605 0.022242 0.994778
0.100152 0.016403 0.994837
0.103496 0.004794 0.994618
1.000000 0.000016 -0.000000
1.000000 0.000013 -0.000000
1.000000 0.000015 -0.000000
1.000000 0.000018 -0.000000
1.000000 0.000017 0.000000
1.000000 0.000019 -0.000000
1.000000 0.000019 0.000000
1.000000 0.000020 0.000000
1.000000 0.000020 0.000000
1.000000 0.000021 0.000000
1.000000 0.000021 0.000000
1.000000 0.000022 0.000000
1.000000 0.000022 0.000000
1.000000 0.000022 0.000000
1.000000 0.000022 0.000000
1.000000 0.000026 0.000000
1.000000 0.000026 0.000000
1.000000 0.000027 0.000000
1.000000 0.000026 0.000000
1.000000 0.000029 0.000000
1.000000 0.000029 -0.000000
1.000000 0.000032 -0.000000
1.000000 0.000031 0.000000
1.000000 0.000033 0.000000
1.000000 0.000032 0.000000
1.000000 0.000035 0.000000
1.000000 0.000037 0.000000
1.000000 0.000039 -0.000000
1.000000 0.000041 0.000000
1.000000 0.000042 0.000000
1.000000 0.000043 0.000000
1.000000 0.000043 -0.000000
1.000000 0.000046 -0.000000
1.000000 0.000048 -0.000000
1.000000 0.000052 -0.000000
1.000000 0.000052 -0.000000
1.000000 0.000058 -0.000000
1.000000 0.000061 0.000000
1.000000 0.000063 -0.000000
1.000000 0.000065 -0.000000
1.000000 0.000068 -0.000000
1.000000 0.000071 -0.000000
1.000000 0.000076 0.000000
1.000000 0.000083 -0.000000
1.000000 0.000069 -0.000003
1.000000 0.000110 -0.000003
1.000000 0.000098 -0.000000
1.000000 0.000101 0.000000
1.000000 0.000111 0.000000
1.000000 0.000120 0.000000
1.000000 0.000129 0.000000
1.000000 0.000139 0.000000
1.000000 0.000150 -0.000000
1.000000 0.000161 -0.000000
1.000000 0.000175 0.000000
1.000000 0.000193 -0.000000
1.000000 0.000206 -0.000000
1.000000 0.000562 -0.000059
1.000000 -0.000090 -0.000061
0.600074 0.000786 -0.799944
-0.691108 0.722665 0.011189
-0.707148 0.706838 0.017947
-0.704313 0.709862 0.006262
-0.705401 0.708784 -0.005893
-0.708753 0.705317 -0.014044
-0.705013 0.708920 -0.019723
-0.701243 0.712312 -0.029510
-0.704632 0.708655 -0.036083
-0.708804 0.704831 -0.028470
-0.702720 0.711235 -0.018165
-0.707378 0.706473 -0.022630
-0.704802 0.708860 -0.027781
-0.699278 0.714550 -0.020698
-0.712190 0.701912 -0.010203
-0.710303 0.703881 -0.004520
-0.711473 0.702707 -0.002953
-0.709751 0.704447 -0.002941
-0.707670 0.706536 -0.003121
-0.713900 0.700245 -0.001558
-0.710497 0.703700 0.000286
-0.706382 0.707829 0.001705
-0.704387 0.709809 0.003186
-0.705545 0.708658 0.003137
-0.703214 0.710976 0.001757
-0.705188 0.709019 0.001448
-0.704495 0.709651 0.009012
-0.699380 0.714690 0.009302
-0.703844 0.710353 -0.001242
-0.708108 0.705975 -0.013468
-0.710384 0.703394 -0.024308
-0.708495 0.705147 -0.028327
-0.704576 0.709140 -0.026338
-0.702139 0.711669 -0.023005
-0.702325 0.711550 -0.020855
-0.705174 0.708789 -0.018667
-0.707605 0.706514 -0.011578
-0.718920 0.695093 -0.000420
-0.695137 0.718766 0.012660
-0.707734 0.705713 0.032891
-0.716803 0.695427 0.050732
-0.695949 0.716899 0.041360
-0.720419 0.693022 0.026798
-0.699957 0.714169 0.004798
-0.719039 0.694967 -0.002028
-0.695923 0.718110 -0.003036
-0.719855 0.694106 -0.005064
-0.693809 0.720144 -0.004755
-0.717790 0.696260 0.000278
-0.693077 0.720848 0.004654
-0.721234 0.692684 0.003206
-0.698997 0.715122 0.002014
-0.711844 0.702337 -0.000405
-0.703489 0.710696 -0.003680
-0.709161 0.704932 -0.012730
-0.706749 0.707434 0.006490
-0.705069 0.709122 0.004965
-0.704779 0.709407 0.005303
-0.705816 0.708378 -0.004950
-0.705970 0.708238 0.002188
-0.705152 0.709053 -0.001933
-0.706141 0.708071 0.000732
-0.706261 0.707943 -0.003628
-0.705925 0.708286 0.001081
-0.706039 0.708164 -0.003534
-0.706807 0.707398 0.003537
-0.707152 0.707061 -0.000355
-0.707474 0.706720 0.005239
-0.709099 0.705097 0.004186
-0.705250 0.708943 0.004779
-0.714916 0.696599 0.060376
-0.697301 0.716757 0.005565
-0.711758 0.702382 0.007722
-0.707107 0.707107 0.000004
-0.709723 0.704481 0.000002
-0.702536 0.711648 -0.000000
-0.708671 0.705539 -0.000000
-0.707107 0.707107 -0.000000
-0.709878 0.704324 0.000032
-0.703689 0.710508 0.000006
-0.714926 0.699200 -0.000020
-0.702060 0.712114 -0.002095
-0.708127 0.706083 -0.001402
-0.710271 0.703928 0.000594
-0.704250 0.709910 0.007733
-0.706361 0.707740 0.012586
-0.708891 0.705259 0.009172
-0.707036 0.707165 0.004261
-0.708449 0.705762 0.000344
-0.706934 0.707279 0.000000
-0.705291 0.708918 0.000378
-0.708434 0.705777 0.000357
-0.706934 0.707279 0.000000
-0.706194 0.708016 -0.001698
-0.706702 0.707511 0.000426
-0.707758 0.706452 0.002011
-0.706189 0.708021 -0.001706
-0.707615 0.706596 -0.001660
-0.706013 0.708196 0.002090
-0.707017 0.707197 0.000311
-0.707617 0.706594 -0.001665
-0.706931 0.707283 0.000000
-0.706181 0.708029 -0.001719
-0.707619 0.706592 -0.001672
-0.706001 0.708208 0.002108
-0.707015 0.707198 0.000311
-0.707622 0.706589 -0.001679
-0.703843 0.710347 -0.003366
-0.707683 0.706478 -0.008568
-0.709124 0.705064 -0.005244
-0.705227 0.708981 0.000389
-0.707739 0.706473 -0.001447
-0.707686 0.706525 -0.001799
-0.706928 0.707285 0.000000
-0.705257 0.708941 0.003864
-0.704675 0.709472 0.009093
-0.708533 0.705644 0.006913
-0.706823 0.707390 -0.000161
-0.709302 0.704902 -0.001819
-0.706927 0.707287 0.000000
-0.706146 0.708064 -0.001771
-0.706881 0.707332 0.000046
-0.706898 0.707307 0.003552
-0.704402 0.709744 0.009078
-0.709280 0.704870 0.008956
-0.706180 0.708030 0.001644
-0.708354 0.705857 -0.000064
-0.706923 0.707291 0.000000
-0.706922 0.707291 0.000000
-0.705243 0.708955 0.003874
-0.707791 0.706419 0.002064
-0.707645 0.706566 -0.001754
-0.706039 0.708170 0.002142
-0.705582 0.708593 0.007090
-0.707702 0.706509 0.001760
-0.706784 0.707397 -0.006742
-0.706688 0.707525 0.000333
-0.708468 0.705733 0.003700
-0.706917 0.707296 0.000000
-0.706918 0.707296 -0.000000
-0.704027 0.710167 0.002972
-0.708906 0.705284 0.005211
-0.707816 0.706393 0.002182
-0.705396 0.708805 0.003613
-0.705555 0.708585 0.009967
-0.703041 0.710948 0.016911
-0.709219 0.704709 0.019850
-0.707125 0.707069 0.005210
-0.707697 0.706433 -0.010856
-0.708937 0.705257 -0.004586
-0.706973 0.707239 -0.001836
-0.704335 0.709859 0.003414
-0.709097 0.705060 0.008515
-0.706645 0.707557 0.003926
-0.707190 0.707013 0.003952
-0.705197 0.709011 0.000614
-0.707836 0.706376 -0.001180
-0.707042 0.707166 0.002974
-0.706815 0.707369 0.006500
-0.706882 0.707331 0.000045
-0.704559 0.709633 -0.004300
-0.710459 0.703729 -0.003750
-0.704470 0.709726 0.003369
-0.707945 0.706244 0.005766
-0.703690 0.710485 -0.005544
-0.709426 0.704742 -0.007319
-0.706278 0.707932 -0.001602
-0.707509 0.706702 0.001899
-0.708269 0.705942 0.000219
-0.703132 0.711009 0.008406
-0.707498 0.706482 0.018166
-0.709653 0.704473 0.010549
-0.707800 0.706410 0.002038
-0.706896 0.707317 -0.000000
-0.704001 0.710170 0.006406
-0.708231 0.705917 0.009524
-0.706434 0.707739 0.007469
-0.707346 0.706829 0.007414
-0.708238 0.705966 0.003186
-0.706893 0.707320 0.000000
-0.703987 0.710203 0.003827
-0.708997 0.705192 0.005329
-0.706340 0.707870 0.001734
-0.707172 0.707038 0.002219
-0.707175 0.707039 0.000687
-0.706888 0.707325 0.000020
-0.704378 0.709816 0.003429
-0.708679 0.705528 0.001882
-0.704243 0.709936 -0.005761
-0.705901 0.708264 -0.008102
-0.710958 0.703234 -0.001017
-0.705782 0.708424 0.002653
-0.707476 0.706727 0.003806
-0.703671 0.710522 -0.002234
-0.707076 0.707079 -0.009110
-0.710952 0.703227 -0.004353
-0.705062 0.709145 0.001300
-0.705052 0.709097 0.009143
-0.709480 0.704656 0.009859
-0.705576 0.708623 0.003992
-0.705255 0.708883 0.009999
-0.708615 0.705548 0.008174
-0.706084 0.708126 -0.001610
-0.701587 0.712559 -0.005968
-0.710274 0.703857 -0.009831
-0.710403 0.703786 -0.003531
-0.704388 0.709778 0.007317
-0.709442 0.704718 0.008025
-0.706702 0.707507 0.002461
-0.706064 0.708135 0.004325
-0.704085 0.710022 0.011554
-0.709492 0.704624 0.011219
-0.708012 0.706195 0.002733
-0.704862 0.709338 -0.002980
-0.702597 0.711538 -0.008491
-0.708075 0.706025 -0.012560
-0.710341 0.703857 -0.001032
-0.705607 0.708578 0.006031
-0.706210 0.707936 0.009680
-0.707964 0.706191 0.009014
-0.708209 0.706002 0.001012
-0.704538 0.709656 0.003875
-0.703618 0.710459 0.013020
-0.710472 0.703566 0.014959
-0.708560 0.705624 0.006170
-0.703498 0.710697 -0.000713
-0.706988 0.707225 0.001076
-0.708542 0.705650 0.005086
-0.705296 0.708814 0.011838
-0.711714 0.702418 0.008539
-0.700949 0.713191 0.005472
-0.711176 0.703000 0.004376
-0.704311 0.709884 0.003270
-0.703919 0.710195 0.010977
-0.712703 0.701455 0.003799
-0.695817 0.717931 0.020321
-0.712438 0.700898 0.034273
-0.702724 0.711172 0.020345
-0.713053 0.700961 0.014465
-0.705736 0.708370 0.012215
-0.711380 0.702780 0.006201
-0.703362 0.710831 0.001313
-0.704472 0.709726 0.002928
-0.712975 0.701146 -0.007785
-0.702597 0.711553 -0.007054
-0.703660 0.710536 -0.000831
-0.710596 0.703596 -0.002352
-0.707923 0.706289 -0.001194
-0.706286 0.707926 -0.001176
-0.707123 0.707060 0.006561
-0.703179 0.704290 0.097541
-0.708056 0.706042 0.012715
-0.705057 0.709127 0.005797
-0.705233 0.708976 0.000663
-0.709847 0.704347 -0.003609
-0.705330 0.708872 -0.003283
-0.706687 0.707471 0.008783
-0.695662 0.718357 -0.004180
-0.714534 0.699179 -0.024295
-0.695907 0.717181 -0.036950
-0.708098 0.705581 -0.027434
-0.714540 0.699592 -0.001761
-0.708665 0.705529 0.004677
-0.703374 0.710661 0.015004
-0.710647 0.703317 0.018059
-0.705333 0.708769 0.012294
-0.707877 0.706215 0.013017
-0.704567 0.709479 0.014984
-0.706178 0.707763 0.019604
-0.708706 0.705333 0.015564
-0.709520 0.700482 0.076853
-0.702998 0.703551 -0.103966
-0.703039 0.711004 -0.014496
-0.697692 0.716224 0.015773
-0.701744 0.711214 0.041585
-0.712424 0.700843 0.035650
-0.704020 0.709574 0.029334
-0.707609 0.705960 0.030167
-0.709493 0.704409 0.020680
-0.706732 0.707347 0.013831
-0.707933 0.706212 0.009783
-0.704140 0.709949 0.012620
-0.706951 0.707067 0.016628
-0.711659 0.702515 0.003836
-0.700149 0.713968 0.006367
-0.709321 0.704795 0.011275
-0.706120 0.708070 0.005614
-0.703528 0.710562 0.012222
-0.706232 0.707749 0.018104
-0.708277 0.705789 0.014320
-0.707590 0.706578 0.008001
-0.706831 0.707366 0.004790
-0.697743 0.716044 0.020891
-0.705577 0.707614 0.038001
-0.713207 0.700515 0.024782
-0.708662 0.705518 0.006458
-0.707789 0.706423 -0.001021
-0.704313 0.709888 0.001254
-0.703122 0.710954 0.012769
-0.705675 0.708240 0.020467
-0.701370 0.712131 0.030811
-0.705577 0.707507 0.039938
-0.713461 0.700220 0.025771
-0.707903 0.706254 0.008876
-0.705297 0.708859 0.008675
-0.702890 0.711077 0.017782
-0.708137 0.705850 0.017841
-0.706489 0.707639 0.010978
-0.707711 0.706455 0.008163
-0.708907 0.705293 0.003489
-0.703748 0.710419 0.006561
-0.703396 0.710587 0.017323
-0.709840 0.704187 0.015755
-0.705093 0.709029 0.011053
-0.707557 0.706580 0.010356
-0.707929 0.706274 0.003630
-0.705134 0.709072 0.001449
-0.704504 0.709669 0.006614
-0.708666 0.705525 0.005123
-0.706148 0.708065 0.000096
-0.706133 0.708079 0.000304
-0.705975 0.708237 0.000206
-0.706056 0.708156 -0.000017
-0.706109 0.708103 0.000076
-0.706106 0.708106 0.000302
-0.705945 0.708267 0.000209
-0.706032 0.708180 -0.000029
-0.706098 0.708114 0.000063
-0.706097 0.708115 0.000304
-0.706032 0.708180 0.000212
-0.706062 0.708150 0.000116
-0.705807 0.708401 0.002183
-0.898149 -0.008909 0.439601
-0.751438 0.007954 0.659756
-0.517616 0.001477 0.855612
-0.352877 0.049303 0.934370
-0.277116 0.000587 0.960836
-0.230424 0.002566 0.973087